####################################################################### 
# 
# This file contains crystal structure data downloaded from the 
# Cambridge Structural Database (CSD) hosted by the Cambridge 
# Crystallographic Data Centre (CCDC).
# 
# Full information about CCDC data access policies and citation 
# guidelines are available at http://www.ccdc.cam.ac.uk/access/V1 
# 
# Audit and citation data items may have been added by the CCDC. 
# Please retain this information to preserve the provenance of 
# this file and to allow appropriate attribution of the data. 
# 
#######################################################################

data_TOQLOA
_audit_block_doi                 10.5517/cc4wh2k
#This CIF has been generated from an entry in the Cambridge Structural Database
_database_code_depnum_ccdc_archive 'CCDC 145578'
_database_code_CSD               TOQLOA
loop_
_citation_id
_citation_doi
_citation_year
1 10.1021/ic9911926 2000
2 10.1002/anie.199619741 1996
_audit_creation_method           'Created from the CSD'
_audit_update_record             
;
2022-06-08 downloaded from the CCDC.
;
_database_code_depnum_ccdc_fiz   'CSD 405106'
_database_code_NBS               '673362 729661'
_chemical_formula_moiety         'C5 Cl1 Ir1 O5 2+,2(F11 Sb2 1-)'
_chemical_name_systematic        
'Chloro-pentacarbonyl-iridium bis((\m~2~-fluoro)-bis(pentafluoroantimonate))'
_chemical_absolute_configuration unk
_diffrn_ambient_temperature      295
_exptl_crystal_density_diffrn    3.446
#These two values have been output from a single CSD field.
_refine_ls_R_factor_gt           0.031
_refine_ls_wR_factor_gt          0.031
_diffrn_radiation_probe          x-ray
_symmetry_cell_setting           monoclinic
_symmetry_space_group_name_H-M   'P 21'
_symmetry_Int_Tables_number      4
_space_group_name_Hall           'P 2yb'
loop_
_symmetry_equiv_pos_site_id
_symmetry_equiv_pos_as_xyz
1 x,y,z
2 -x,1/2+y,-z
_cell_length_a                   9.686(2)
_cell_length_b                   12.585(2)
_cell_length_c                   10.499(2)
_cell_angle_alpha                90
_cell_angle_beta                 106.59(2)
_cell_angle_gamma                90
_cell_volume                     1226.53
_exptl_crystal_colour            'colorless or pale yellow'
_cell_formula_units_Z            2
_chemical_properties_physical    moisture-sensitive
loop_
_atom_site_label
_atom_site_type_symbol
_atom_site_fract_x
_atom_site_fract_y
_atom_site_fract_z
Ir1 Ir 0.74349(6) 0.5095 0.75201(5)
Cl1 Cl 0.9299(4) 0.4858(4) 0.6566(4)
O1 O 0.497(1) 0.5493(9) 0.883(1)
O2 O 0.543(1) 0.428(1) 0.4851(10)
O3 O 0.970(1) 0.5890(9) 1.0088(9)
O4 O 0.786(1) 0.2792(9) 0.8560(10)
O5 O 0.725(1) 0.740(1) 0.6336(9)
C1 C 0.579(1) 0.534(1) 0.835(1)
C2 C 0.614(2) 0.456(1) 0.578(1)
C3 C 0.892(1) 0.562(1) 0.920(1)
C4 C 0.775(2) 0.360(1) 0.820(1)
C5 C 0.730(1) 0.658(1) 0.677(1)
Sb1 Sb 0.7594(1) 0.13301(10) 0.50828(9)
Sb2 Sb 0.8311(1) 0.3168(1) 0.23180(9)
F1 F 0.835(1) 0.2014(9) 0.3758(10)
F2 F 0.687(1) 0.074(2) 0.634(1)
F3 F 0.758(2) 0.018(1) 0.410(1)
F4 F 0.751(1) 0.2684(9) 0.5752(8)
F5 F 0.948(1) 0.122(1) 0.599(1)
F6 F 0.5724(9) 0.1550(10) 0.3988(8)
F7 F 0.818(1) 0.4118(8) 0.0914(8)
F8 F 0.955(1) 0.2250(9) 0.1820(9)
F9 F 0.710(1) 0.3930(9) 0.3015(9)
F10 F 0.678(1) 0.240(1) 0.131(1)
F11 F 0.991(1) 0.375(1) 0.3481(10)
Sb3 Sb 0.6538(1) 0.7170(1) 0.25615(9)
Sb4 Sb 0.7387(1) 0.87641(10) -0.03153(9)
F12 F 0.675(2) 0.8218(9) 0.122(1)
F13 F 0.630(1) 0.6261(9) 0.3831(8)
F14 F 0.759(1) 0.6273(9) 0.1817(10)
F15 F 0.538(1) 0.8235(8) 0.2979(8)
F16 F 0.495(1) 0.673(1) 0.1295(8)
F17 F 0.810(1) 0.783(1) 0.364(1)
F18 F 0.802(2) 0.919(1) -0.172(1)
F19 F 0.700(1) 0.7386(8) -0.0958(8)
F20 F 0.773(1) 1.0116(9) 0.0525(9)
F21 F 0.918(1) 0.827(1) 0.063(1)
F22 F 0.554(1) 0.917(1) -0.109(1)

#END
